file 2127901 1777913431                                         
version 3
run Static-0-20260504-21:50:14-11580
attr configname Static
attr datetime 20260504-21:50:14
attr datetimef 20260504-215014
attr experiment Static
attr inifile omnetpp.ini
attr iterationvars ""
attr iterationvarsd ""
attr iterationvarsf ""
attr measurement ""
attr network CampusNetwork
attr processid 11580
attr repetition 0
attr replication #0
attr resultdir results
attr runnumber 0
attr seedset 0
config image-path ../inet4.5/images
config description "Static Routing Simulation"
config **.seHost1.app[0].typename TrafficGenerator
config **.seHost2.app[0].typename TrafficGenerator
config **.seHost3.app[0].typename TrafficGenerator
config **.eeHost1.app[0].typename TrafficGenerator
config **.eeHost2.app[0].typename TrafficGenerator
config **.eeHost3.app[0].typename TrafficGenerator
config **.bbaHost1.app[0].typename TrafficGenerator
config **.bbaHost2.app[0].typename TrafficGenerator
config **.bbaHost3.app[0].typename TrafficGenerator
config **.adminHost1.app[0].typename TrafficGenerator
config **.adminHost2.app[0].typename TrafficGenerator
config **.adminHost3.app[0].typename TrafficGenerator
config **.app[0].trafficProfile "\"CBR\""
config **.app[0].packetSize 512
config **.app[0].sendInterval 0.01
config **.app[0].startTime 1.0
config **.app[0].stopTime 175.0
config **.app[0].destAddress "\"10.0.6.1\""
config **.coreRouter.routeTable "\"10.0.1.0/255.255.255.0:0;10.0.2.0/255.255.255.0:1;10.0.3.0/255.255.255.0:2;10.0.4.0/255.255.255.0:3\""
config **.seRouter.routeTable "\"10.0.0.0/255.0.0.0:0;10.0.1.1/255.255.255.255:1;10.0.1.2/255.255.255.255:2;10.0.1.3/255.255.255.255:3\""
config **.eeRouter.routeTable "\"10.0.0.0/255.0.0.0:0;10.0.2.1/255.255.255.255:1;10.0.2.2/255.255.255.255:2;10.0.2.3/255.255.255.255:3\""
config **.bbaRouter.routeTable "\"10.0.0.0/255.0.0.0:0;10.0.3.1/255.255.255.255:1;10.0.3.2/255.255.255.255:2;10.0.3.3/255.255.255.255:3\""
config **.adminRouter.routeTable "\"10.0.0.0/255.0.0.0:0;10.0.4.1/255.255.255.255:1;10.0.4.2/255.255.255.255:2;10.0.4.3/255.255.255.255:3\""
config *.coreRouter.ethg[0].channel.disabled false
config *.seRouter.ethg[0].channel.disabled false
config **.pktsForwarded.record true
config **.pktsDropped.record true
config **.pktsSent.record true
config network CampusNetwork
config sim-time-limit 180s
config record-eventlog true

vector 0 CampusNetwork.coreRouter.ethernet encapPk:vector(packetBytes) ETV
attr interpolationmode none
attr recordingmode vector(packetBytes)
attr source encapPk
attr title "packets encapsulated, packetBytes"
vector 1 CampusNetwork.coreRouter.ethernet decapPk:vector(packetBytes) ETV
attr interpolationmode none
attr recordingmode vector(packetBytes)
attr source decapPk
attr title "packets decapsulated, packetBytes"
vector 2 CampusNetwork.coreRouter.ethernet pauseSent:vector ETV
attr recordingmode vector
attr title "pause sent"
vector 3 CampusNetwork.coreRouter.lo[0].lo rcvdPkFromHl:vector(packetBytes) ETV
attr interpolationmode none
attr recordingmode vector(packetBytes)
attr source packetReceivedFromUpper
attr title "packets received from higher layer, packetBytes"
vector 4 CampusNetwork.coreRouter.lo[0].lo passedUpPk:vector(packetBytes) ETV
attr interpolationmode none
attr recordingmode vector(packetBytes)
attr source packetSentToUpper
attr title "packets passed to higher layer, packetBytes"
vector 5 CampusNetwork.coreRouter.lo[0] packetDropInterfaceDown:vector(packetBytes) ETV
attr interpolationmode none
attr recordingmode vector(packetBytes)
attr source packetDropReasonIsInterfaceDown(packetDropped)
attr title "packet drops: interface down, packetBytes"
vector 6 CampusNetwork.coreRouter.lo[0] packetDropNoCarrier:vector(packetBytes) ETV
attr interpolationmode none
attr recordingmode vector(packetBytes)
attr source packetDropReasonIsNoCarrier(packetDropped)
attr title "packet drops: no carrier, packetBytes"
vector 7 CampusNetwork.coreRouter.eth[0].queue queueLength:vector ETV
attr autoWarmupFilter false
attr interpolationmode sample-hold
attr recordingmode vector
attr source "warmup(atomic(constant0(packetPushEnded) + count(packetPushStarted) - count(packetPulled) - count(packetRemoved) - count(packetDropped)))"
attr title "queue length"
attr unit pk
vector 8 CampusNetwork.coreRouter.eth[0].queue queueBitLength:vector ETV
attr autoWarmupFilter false
attr interpolationmode sample-hold
attr recordingmode vector
attr source "warmup(atomic(constant0(packetPushEnded) + sum(packetLength(packetPushStarted)) - sum(packetLength(packetPulled)) - sum(packetLength(packetRemoved)) - sum(packetLength(packetDropped))))"
attr title "queue bit length"
attr unit b
vector 9 CampusNetwork.coreRouter.eth[0].queue queueingTime:vector ETV
attr interpolationmode none
attr recordingmode vector
attr source queueingTime(packetPulled)
attr title "queueing times"
attr unit s
vector 10 CampusNetwork.coreRouter.eth[0].queue incomingPacketLengths:vector ETV
attr interpolationmode none
attr recordingmode vector
attr source packetLength(packetPushStarted)
attr title "incoming packet lengths"
attr unit b
vector 11 CampusNetwork.coreRouter.eth[0].queue incomingDataRate:vector ETV
attr interpolationmode linear
attr recordingmode vector
attr source throughput(packetPushStarted)
attr title "incoming datarate"
attr unit bps
vector 12 CampusNetwork.coreRouter.eth[0].queue outgoingPacketLengths:vector ETV
attr interpolationmode none
attr recordingmode vector
attr source packetLength(packetPulled)
attr title "outgoing packet lengths"
attr unit b
vector 13 CampusNetwork.coreRouter.eth[0].queue outgoingDataRate:vector ETV
attr interpolationmode linear
attr recordingmode vector
attr source throughput(packetPulled)
attr title "outgoing datarate"
attr unit bps
vector 14 CampusNetwork.coreRouter.eth[0].queue droppedPacketLengthsQueueOverflow:vector ETV
attr interpolationmode none
attr recordingmode vector
attr source packetLength(packetDropReasonIsQueueOverflow(packetDropped))
attr title "dropped packet lengths: queue overflow"
attr unit b
vector 15 CampusNetwork.coreRouter.eth[0].queue flowQueueingTime:vector ETV
attr interpolationmode none
attr recordingmode vector
attr source queueingTime(demuxFlow(packetPulled))
attr title "flow queueing times"
attr unit s
vector 16 CampusNetwork.coreRouter.eth[0].queue flowIncomingDataRate:vector ETV
attr interpolationmode linear
attr recordingmode vector
attr source throughput(flowPacketLength(demuxFlow(packetPushStarted)))
attr title "flow specific incoming data rate"
attr unit bps
vector 17 CampusNetwork.coreRouter.eth[0].queue flowOutgoingDataRate:vector ETV
attr interpolationmode linear
attr recordingmode vector
attr source throughput(flowPacketLength(demuxFlow(packetPulled)))
attr title "flow specific outgoing data rate"
attr unit bps
vector 18 CampusNetwork.coreRouter.eth[0].mac txPk:vector(packetBytes) ETV
attr interpolationmode none
attr recordingmode vector(packetBytes)
attr source packetSentToLower
attr title "packets transmitted, packetBytes"
vector 19 CampusNetwork.coreRouter.eth[0].mac rxPkOk:vector(packetBytes) ETV
attr interpolationmode none
attr recordingmode vector(packetBytes)
attr source rxPkOk
attr title "packets received OK, packetBytes"
vector 20 CampusNetwork.coreRouter.eth[0].mac passedUpPk:vector(packetBytes) ETV
attr interpolationmode none
attr recordingmode vector(packetBytes)
attr source packetSentToUpper
attr title "packets passed to higher layer, packetBytes"
vector 21 CampusNetwork.coreRouter.eth[0].mac txPausePkUnits:vector ETV
attr interpolationmode none
attr recordingmode vector
attr title "pause units sent"
vector 22 CampusNetwork.coreRouter.eth[0].mac rxPausePkUnits:vector ETV
attr interpolationmode none
attr recordingmode vector
attr title "pause units received"
vector 23 CampusNetwork.coreRouter.eth[0].mac packetReceivedFromUpper:vector(packetBytes) ETV
attr interpolationmode none
attr recordingmode vector(packetBytes)
attr source packetReceivedFromUpper
attr title "packet bytes from higher layer, packetBytes"
vector 24 CampusNetwork.coreRouter.eth[0].mac packetDropIncorrectlyReceived:vector(packetBytes) ETV
attr interpolationmode none
attr recordingmode vector(packetBytes)
attr source packetDropReasonIsIncorrectlyReceived(packetDropped)
attr title "packet drop: incorrectly received, packetBytes"
vector 25 CampusNetwork.coreRouter.eth[0].mac packetDropInterfaceDown:vector(packetBytes) ETV
attr interpolationmode none
attr recordingmode vector(packetBytes)
attr source packetDropReasonIsInterfaceDown(packetDropped)
attr title "packet drop: interface down, packetBytes"
vector 26 CampusNetwork.coreRouter.eth[0].mac packetDropNotAddressedToUs:vector(packetBytes) ETV
attr interpolationmode none
attr recordingmode vector(packetBytes)
attr source packetDropReasonIsNotAddressedToUs(packetDropped)
attr title "packet drop: not addressed to us, packetBytes"
vector 27 CampusNetwork.coreRouter.eth[0] packetDropInterfaceDown:vector(packetBytes) ETV
attr interpolationmode none
attr recordingmode vector(packetBytes)
attr source packetDropReasonIsInterfaceDown(packetDropped)
attr title "packet drops: interface down, packetBytes"
vector 28 CampusNetwork.coreRouter.eth[0] packetDropNoCarrier:vector(packetBytes) ETV
attr interpolationmode none
attr recordingmode vector(packetBytes)
attr source packetDropReasonIsNoCarrier(packetDropped)
attr title "packet drops: no carrier, packetBytes"
vector 29 CampusNetwork.coreRouter.eth[1].queue queueLength:vector ETV
attr autoWarmupFilter false
attr interpolationmode sample-hold
attr recordingmode vector
attr source "warmup(atomic(constant0(packetPushEnded) + count(packetPushStarted) - count(packetPulled) - count(packetRemoved) - count(packetDropped)))"
attr title "queue length"
attr unit pk
vector 30 CampusNetwork.coreRouter.eth[1].queue queueBitLength:vector ETV
attr autoWarmupFilter false
attr interpolationmode sample-hold
attr recordingmode vector
attr source "warmup(atomic(constant0(packetPushEnded) + sum(packetLength(packetPushStarted)) - sum(packetLength(packetPulled)) - sum(packetLength(packetRemoved)) - sum(packetLength(packetDropped))))"
attr title "queue bit length"
attr unit b
vector 31 CampusNetwork.coreRouter.eth[1].queue queueingTime:vector ETV
attr interpolationmode none
attr recordingmode vector
attr source queueingTime(packetPulled)
attr title "queueing times"
attr unit s
vector 32 CampusNetwork.coreRouter.eth[1].queue incomingPacketLengths:vector ETV
attr interpolationmode none
attr recordingmode vector
attr source packetLength(packetPushStarted)
attr title "incoming packet lengths"
attr unit b
vector 33 CampusNetwork.coreRouter.eth[1].queue incomingDataRate:vector ETV
attr interpolationmode linear
attr recordingmode vector
attr source throughput(packetPushStarted)
attr title "incoming datarate"
attr unit bps
vector 34 CampusNetwork.coreRouter.eth[1].queue outgoingPacketLengths:vector ETV
attr interpolationmode none
attr recordingmode vector
attr source packetLength(packetPulled)
attr title "outgoing packet lengths"
attr unit b
vector 35 CampusNetwork.coreRouter.eth[1].queue outgoingDataRate:vector ETV
attr interpolationmode linear
attr recordingmode vector
attr source throughput(packetPulled)
attr title "outgoing datarate"
attr unit bps
vector 36 CampusNetwork.coreRouter.eth[1].queue droppedPacketLengthsQueueOverflow:vector ETV
attr interpolationmode none
attr recordingmode vector
attr source packetLength(packetDropReasonIsQueueOverflow(packetDropped))
attr title "dropped packet lengths: queue overflow"
attr unit b
vector 37 CampusNetwork.coreRouter.eth[1].queue flowQueueingTime:vector ETV
attr interpolationmode none
attr recordingmode vector
attr source queueingTime(demuxFlow(packetPulled))
attr title "flow queueing times"
attr unit s
vector 38 CampusNetwork.coreRouter.eth[1].queue flowIncomingDataRate:vector ETV
attr interpolationmode linear
attr recordingmode vector
attr source throughput(flowPacketLength(demuxFlow(packetPushStarted)))
attr title "flow specific incoming data rate"
attr unit bps
vector 39 CampusNetwork.coreRouter.eth[1].queue flowOutgoingDataRate:vector ETV
attr interpolationmode linear
attr recordingmode vector
attr source throughput(flowPacketLength(demuxFlow(packetPulled)))
attr title "flow specific outgoing data rate"
attr unit bps
vector 40 CampusNetwork.coreRouter.eth[1].mac txPk:vector(packetBytes) ETV
attr interpolationmode none
attr recordingmode vector(packetBytes)
attr source packetSentToLower
attr title "packets transmitted, packetBytes"
vector 41 CampusNetwork.coreRouter.eth[1].mac rxPkOk:vector(packetBytes) ETV
attr interpolationmode none
attr recordingmode vector(packetBytes)
attr source rxPkOk
attr title "packets received OK, packetBytes"
vector 42 CampusNetwork.coreRouter.eth[1].mac passedUpPk:vector(packetBytes) ETV
attr interpolationmode none
attr recordingmode vector(packetBytes)
attr source packetSentToUpper
attr title "packets passed to higher layer, packetBytes"
vector 43 CampusNetwork.coreRouter.eth[1].mac txPausePkUnits:vector ETV
attr interpolationmode none
attr recordingmode vector
attr title "pause units sent"
vector 44 CampusNetwork.coreRouter.eth[1].mac rxPausePkUnits:vector ETV
attr interpolationmode none
attr recordingmode vector
attr title "pause units received"
vector 45 CampusNetwork.coreRouter.eth[1].mac packetReceivedFromUpper:vector(packetBytes) ETV
attr interpolationmode none
attr recordingmode vector(packetBytes)
attr source packetReceivedFromUpper
attr title "packet bytes from higher layer, packetBytes"
vector 46 CampusNetwork.coreRouter.eth[1].mac packetDropIncorrectlyReceived:vector(packetBytes) ETV
attr interpolationmode none
attr recordingmode vector(packetBytes)
attr source packetDropReasonIsIncorrectlyReceived(packetDropped)
attr title "packet drop: incorrectly received, packetBytes"
vector 47 CampusNetwork.coreRouter.eth[1].mac packetDropInterfaceDown:vector(packetBytes) ETV
attr interpolationmode none
attr recordingmode vector(packetBytes)
attr source packetDropReasonIsInterfaceDown(packetDropped)
attr title "packet drop: interface down, packetBytes"
vector 48 CampusNetwork.coreRouter.eth[1].mac packetDropNotAddressedToUs:vector(packetBytes) ETV
attr interpolationmode none
attr recordingmode vector(packetBytes)
attr source packetDropReasonIsNotAddressedToUs(packetDropped)
attr title "packet drop: not addressed to us, packetBytes"
vector 49 CampusNetwork.coreRouter.eth[1] packetDropInterfaceDown:vector(packetBytes) ETV
attr interpolationmode none
attr recordingmode vector(packetBytes)
attr source packetDropReasonIsInterfaceDown(packetDropped)
attr title "packet drops: interface down, packetBytes"
vector 50 CampusNetwork.coreRouter.eth[1] packetDropNoCarrier:vector(packetBytes) ETV
attr interpolationmode none
attr recordingmode vector(packetBytes)
attr source packetDropReasonIsNoCarrier(packetDropped)
attr title "packet drops: no carrier, packetBytes"
vector 51 CampusNetwork.coreRouter.eth[2].queue queueLength:vector ETV
attr autoWarmupFilter false
attr interpolationmode sample-hold
attr recordingmode vector
attr source "warmup(atomic(constant0(packetPushEnded) + count(packetPushStarted) - count(packetPulled) - count(packetRemoved) - count(packetDropped)))"
attr title "queue length"
attr unit pk
vector 52 CampusNetwork.coreRouter.eth[2].queue queueBitLength:vector ETV
attr autoWarmupFilter false
attr interpolationmode sample-hold
attr recordingmode vector
attr source "warmup(atomic(constant0(packetPushEnded) + sum(packetLength(packetPushStarted)) - sum(packetLength(packetPulled)) - sum(packetLength(packetRemoved)) - sum(packetLength(packetDropped))))"
attr title "queue bit length"
attr unit b
vector 53 CampusNetwork.coreRouter.eth[2].queue queueingTime:vector ETV
attr interpolationmode none
attr recordingmode vector
attr source queueingTime(packetPulled)
attr title "queueing times"
attr unit s
vector 54 CampusNetwork.coreRouter.eth[2].queue incomingPacketLengths:vector ETV
attr interpolationmode none
attr recordingmode vector
attr source packetLength(packetPushStarted)
attr title "incoming packet lengths"
attr unit b
vector 55 CampusNetwork.coreRouter.eth[2].queue incomingDataRate:vector ETV
attr interpolationmode linear
attr recordingmode vector
attr source throughput(packetPushStarted)
attr title "incoming datarate"
attr unit bps
vector 56 CampusNetwork.coreRouter.eth[2].queue outgoingPacketLengths:vector ETV
attr interpolationmode none
attr recordingmode vector
attr source packetLength(packetPulled)
attr title "outgoing packet lengths"
attr unit b
vector 57 CampusNetwork.coreRouter.eth[2].queue outgoingDataRate:vector ETV
attr interpolationmode linear
attr recordingmode vector
attr source throughput(packetPulled)
attr title "outgoing datarate"
attr unit bps
vector 58 CampusNetwork.coreRouter.eth[2].queue droppedPacketLengthsQueueOverflow:vector ETV
attr interpolationmode none
attr recordingmode vector
attr source packetLength(packetDropReasonIsQueueOverflow(packetDropped))
attr title "dropped packet lengths: queue overflow"
attr unit b
vector 59 CampusNetwork.coreRouter.eth[2].queue flowQueueingTime:vector ETV
attr interpolationmode none
attr recordingmode vector
attr source queueingTime(demuxFlow(packetPulled))
attr title "flow queueing times"
attr unit s
vector 60 CampusNetwork.coreRouter.eth[2].queue flowIncomingDataRate:vector ETV
attr interpolationmode linear
attr recordingmode vector
attr source throughput(flowPacketLength(demuxFlow(packetPushStarted)))
attr title "flow specific incoming data rate"
attr unit bps
vector 61 CampusNetwork.coreRouter.eth[2].queue flowOutgoingDataRate:vector ETV
attr interpolationmode linear
attr recordingmode vector
attr source throughput(flowPacketLength(demuxFlow(packetPulled)))
attr title "flow specific outgoing data rate"
attr unit bps
vector 62 CampusNetwork.coreRouter.eth[2].mac txPk:vector(packetBytes) ETV
attr interpolationmode none
attr recordingmode vector(packetBytes)
attr source packetSentToLower
attr title "packets transmitted, packetBytes"
vector 63 CampusNetwork.coreRouter.eth[2].mac rxPkOk:vector(packetBytes) ETV
attr interpolationmode none
attr recordingmode vector(packetBytes)
attr source rxPkOk
attr title "packets received OK, packetBytes"
vector 64 CampusNetwork.coreRouter.eth[2].mac passedUpPk:vector(packetBytes) ETV
attr interpolationmode none
attr recordingmode vector(packetBytes)
attr source packetSentToUpper
attr title "packets passed to higher layer, packetBytes"
vector 65 CampusNetwork.coreRouter.eth[2].mac txPausePkUnits:vector ETV
attr interpolationmode none
attr recordingmode vector
attr title "pause units sent"
vector 66 CampusNetwork.coreRouter.eth[2].mac rxPausePkUnits:vector ETV
attr interpolationmode none
attr recordingmode vector
attr title "pause units received"
vector 67 CampusNetwork.coreRouter.eth[2].mac packetReceivedFromUpper:vector(packetBytes) ETV
attr interpolationmode none
attr recordingmode vector(packetBytes)
attr source packetReceivedFromUpper
attr title "packet bytes from higher layer, packetBytes"
vector 68 CampusNetwork.coreRouter.eth[2].mac packetDropIncorrectlyReceived:vector(packetBytes) ETV
attr interpolationmode none
attr recordingmode vector(packetBytes)
attr source packetDropReasonIsIncorrectlyReceived(packetDropped)
attr title "packet drop: incorrectly received, packetBytes"
vector 69 CampusNetwork.coreRouter.eth[2].mac packetDropInterfaceDown:vector(packetBytes) ETV
attr interpolationmode none
attr recordingmode vector(packetBytes)
attr source packetDropReasonIsInterfaceDown(packetDropped)
attr title "packet drop: interface down, packetBytes"
vector 70 CampusNetwork.coreRouter.eth[2].mac packetDropNotAddressedToUs:vector(packetBytes) ETV
attr interpolationmode none
attr recordingmode vector(packetBytes)
attr source packetDropReasonIsNotAddressedToUs(packetDropped)
attr title "packet drop: not addressed to us, packetBytes"
vector 71 CampusNetwork.coreRouter.eth[2] packetDropInterfaceDown:vector(packetBytes) ETV
attr interpolationmode none
attr recordingmode vector(packetBytes)
attr source packetDropReasonIsInterfaceDown(packetDropped)
attr title "packet drops: interface down, packetBytes"
vector 72 CampusNetwork.coreRouter.eth[2] packetDropNoCarrier:vector(packetBytes) ETV
attr interpolationmode none
attr recordingmode vector(packetBytes)
attr source packetDropReasonIsNoCarrier(packetDropped)
attr title "packet drops: no carrier, packetBytes"
vector 73 CampusNetwork.coreRouter.eth[3].queue queueLength:vector ETV
attr autoWarmupFilter false
attr interpolationmode sample-hold
attr recordingmode vector
attr source "warmup(atomic(constant0(packetPushEnded) + count(packetPushStarted) - count(packetPulled) - count(packetRemoved) - count(packetDropped)))"
attr title "queue length"
attr unit pk
vector 74 CampusNetwork.coreRouter.eth[3].queue queueBitLength:vector ETV
attr autoWarmupFilter false
attr interpolationmode sample-hold
attr recordingmode vector
attr source "warmup(atomic(constant0(packetPushEnded) + sum(packetLength(packetPushStarted)) - sum(packetLength(packetPulled)) - sum(packetLength(packetRemoved)) - sum(packetLength(packetDropped))))"
attr title "queue bit length"
attr unit b
vector 75 CampusNetwork.coreRouter.eth[3].queue queueingTime:vector ETV
attr interpolationmode none
attr recordingmode vector
attr source queueingTime(packetPulled)
attr title "queueing times"
attr unit s
vector 76 CampusNetwork.coreRouter.eth[3].queue incomingPacketLengths:vector ETV
attr interpolationmode none
attr recordingmode vector
attr source packetLength(packetPushStarted)
attr title "incoming packet lengths"
attr unit b
vector 77 CampusNetwork.coreRouter.eth[3].queue incomingDataRate:vector ETV
attr interpolationmode linear
attr recordingmode vector
attr source throughput(packetPushStarted)
attr title "incoming datarate"
attr unit bps
vector 78 CampusNetwork.coreRouter.eth[3].queue outgoingPacketLengths:vector ETV
attr interpolationmode none
attr recordingmode vector
attr source packetLength(packetPulled)
attr title "outgoing packet lengths"
attr unit b
vector 79 CampusNetwork.coreRouter.eth[3].queue outgoingDataRate:vector ETV
attr interpolationmode linear
attr recordingmode vector
attr source throughput(packetPulled)
attr title "outgoing datarate"
attr unit bps
vector 80 CampusNetwork.coreRouter.eth[3].queue droppedPacketLengthsQueueOverflow:vector ETV
attr interpolationmode none
attr recordingmode vector
attr source packetLength(packetDropReasonIsQueueOverflow(packetDropped))
attr title "dropped packet lengths: queue overflow"
attr unit b
vector 81 CampusNetwork.coreRouter.eth[3].queue flowQueueingTime:vector ETV
attr interpolationmode none
attr recordingmode vector
attr source queueingTime(demuxFlow(packetPulled))
attr title "flow queueing times"
attr unit s
vector 82 CampusNetwork.coreRouter.eth[3].queue flowIncomingDataRate:vector ETV
attr interpolationmode linear
attr recordingmode vector
attr source throughput(flowPacketLength(demuxFlow(packetPushStarted)))
attr title "flow specific incoming data rate"
attr unit bps
vector 83 CampusNetwork.coreRouter.eth[3].queue flowOutgoingDataRate:vector ETV
attr interpolationmode linear
attr recordingmode vector
attr source throughput(flowPacketLength(demuxFlow(packetPulled)))
attr title "flow specific outgoing data rate"
attr unit bps
vector 84 CampusNetwork.coreRouter.eth[3].mac txPk:vector(packetBytes) ETV
attr interpolationmode none
attr recordingmode vector(packetBytes)
attr source packetSentToLower
attr title "packets transmitted, packetBytes"
vector 85 CampusNetwork.coreRouter.eth[3].mac rxPkOk:vector(packetBytes) ETV
attr interpolationmode none
attr recordingmode vector(packetBytes)
attr source rxPkOk
attr title "packets received OK, packetBytes"
vector 86 CampusNetwork.coreRouter.eth[3].mac passedUpPk:vector(packetBytes) ETV
attr interpolationmode none
attr recordingmode vector(packetBytes)
attr source packetSentToUpper
attr title "packets passed to higher layer, packetBytes"
vector 87 CampusNetwork.coreRouter.eth[3].mac txPausePkUnits:vector ETV
attr interpolationmode none
attr recordingmode vector
attr title "pause units sent"
vector 88 CampusNetwork.coreRouter.eth[3].mac rxPausePkUnits:vector ETV
attr interpolationmode none
attr recordingmode vector
attr title "pause units received"
vector 89 CampusNetwork.coreRouter.eth[3].mac packetReceivedFromUpper:vector(packetBytes) ETV
attr interpolationmode none
attr recordingmode vector(packetBytes)
attr source packetReceivedFromUpper
attr title "packet bytes from higher layer, packetBytes"
vector 90 CampusNetwork.coreRouter.eth[3].mac packetDropIncorrectlyReceived:vector(packetBytes) ETV
attr interpolationmode none
attr recordingmode vector(packetBytes)
attr source packetDropReasonIsIncorrectlyReceived(packetDropped)
attr title "packet drop: incorrectly received, packetBytes"
vector 91 CampusNetwork.coreRouter.eth[3].mac packetDropInterfaceDown:vector(packetBytes) ETV
attr interpolationmode none
attr recordingmode vector(packetBytes)
attr source packetDropReasonIsInterfaceDown(packetDropped)
attr title "packet drop: interface down, packetBytes"
vector 92 CampusNetwork.coreRouter.eth[3].mac packetDropNotAddressedToUs:vector(packetBytes) ETV
attr interpolationmode none
attr recordingmode vector(packetBytes)
attr source packetDropReasonIsNotAddressedToUs(packetDropped)
attr title "packet drop: not addressed to us, packetBytes"
vector 93 CampusNetwork.coreRouter.eth[3] packetDropInterfaceDown:vector(packetBytes) ETV
attr interpolationmode none
attr recordingmode vector(packetBytes)
attr source packetDropReasonIsInterfaceDown(packetDropped)
attr title "packet drops: interface down, packetBytes"
vector 94 CampusNetwork.coreRouter.eth[3] packetDropNoCarrier:vector(packetBytes) ETV
attr interpolationmode none
attr recordingmode vector(packetBytes)
attr source packetDropReasonIsNoCarrier(packetDropped)
attr title "packet drops: no carrier, packetBytes"
vector 95 CampusNetwork.coreRouter.eth[4].queue queueLength:vector ETV
attr autoWarmupFilter false
attr interpolationmode sample-hold
attr recordingmode vector
attr source "warmup(atomic(constant0(packetPushEnded) + count(packetPushStarted) - count(packetPulled) - count(packetRemoved) - count(packetDropped)))"
attr title "queue length"
attr unit pk
vector 96 CampusNetwork.coreRouter.eth[4].queue queueBitLength:vector ETV
attr autoWarmupFilter false
attr interpolationmode sample-hold
attr recordingmode vector
attr source "warmup(atomic(constant0(packetPushEnded) + sum(packetLength(packetPushStarted)) - sum(packetLength(packetPulled)) - sum(packetLength(packetRemoved)) - sum(packetLength(packetDropped))))"
attr title "queue bit length"
attr unit b
vector 97 CampusNetwork.coreRouter.eth[4].queue queueingTime:vector ETV
attr interpolationmode none
attr recordingmode vector
attr source queueingTime(packetPulled)
attr title "queueing times"
attr unit s
vector 98 CampusNetwork.coreRouter.eth[4].queue incomingPacketLengths:vector ETV
attr interpolationmode none
attr recordingmode vector
attr source packetLength(packetPushStarted)
attr title "incoming packet lengths"
attr unit b
vector 99 CampusNetwork.coreRouter.eth[4].queue incomingDataRate:vector ETV
attr interpolationmode linear
attr recordingmode vector
attr source throughput(packetPushStarted)
attr title "incoming datarate"
attr unit bps
vector 100 CampusNetwork.coreRouter.eth[4].queue outgoingPacketLengths:vector ETV
attr interpolationmode none
attr recordingmode vector
attr source packetLength(packetPulled)
attr title "outgoing packet lengths"
attr unit b
vector 101 CampusNetwork.coreRouter.eth[4].queue outgoingDataRate:vector ETV
attr interpolationmode linear
attr recordingmode vector
attr source throughput(packetPulled)
attr title "outgoing datarate"
attr unit bps
vector 102 CampusNetwork.coreRouter.eth[4].queue droppedPacketLengthsQueueOverflow:vector ETV
attr interpolationmode none
attr recordingmode vector
attr source packetLength(packetDropReasonIsQueueOverflow(packetDropped))
attr title "dropped packet lengths: queue overflow"
attr unit b
vector 103 CampusNetwork.coreRouter.eth[4].queue flowQueueingTime:vector ETV
attr interpolationmode none
attr recordingmode vector
attr source queueingTime(demuxFlow(packetPulled))
attr title "flow queueing times"
attr unit s
vector 104 CampusNetwork.coreRouter.eth[4].queue flowIncomingDataRate:vector ETV
attr interpolationmode linear
attr recordingmode vector
attr source throughput(flowPacketLength(demuxFlow(packetPushStarted)))
attr title "flow specific incoming data rate"
attr unit bps
vector 105 CampusNetwork.coreRouter.eth[4].queue flowOutgoingDataRate:vector ETV
attr interpolationmode linear
attr recordingmode vector
attr source throughput(flowPacketLength(demuxFlow(packetPulled)))
attr title "flow specific outgoing data rate"
attr unit bps
vector 106 CampusNetwork.coreRouter.eth[4].mac txPk:vector(packetBytes) ETV
attr interpolationmode none
attr recordingmode vector(packetBytes)
attr source packetSentToLower
attr title "packets transmitted, packetBytes"
vector 107 CampusNetwork.coreRouter.eth[4].mac rxPkOk:vector(packetBytes) ETV
attr interpolationmode none
attr recordingmode vector(packetBytes)
attr source rxPkOk
attr title "packets received OK, packetBytes"
vector 108 CampusNetwork.coreRouter.eth[4].mac passedUpPk:vector(packetBytes) ETV
attr interpolationmode none
attr recordingmode vector(packetBytes)
attr source packetSentToUpper
attr title "packets passed to higher layer, packetBytes"
vector 109 CampusNetwork.coreRouter.eth[4].mac txPausePkUnits:vector ETV
attr interpolationmode none
attr recordingmode vector
attr title "pause units sent"
vector 110 CampusNetwork.coreRouter.eth[4].mac rxPausePkUnits:vector ETV
attr interpolationmode none
attr recordingmode vector
attr title "pause units received"
vector 111 CampusNetwork.coreRouter.eth[4].mac packetReceivedFromUpper:vector(packetBytes) ETV
attr interpolationmode none
attr recordingmode vector(packetBytes)
attr source packetReceivedFromUpper